
                                 *****************
                                 * O   R   C   A *
                                 *****************

                                            #,                                       
                                            ###                                      
                                            ####                                     
                                            #####                                    
                                            ######                                   
                                           ########,                                 
                                     ,,################,,,,,                         
                               ,,#################################,,                 
                          ,,##########################################,,             
                       ,#########################################, ''#####,          
                    ,#############################################,,   '####,        
                  ,##################################################,,,,####,       
                ,###########''''           ''''###############################       
              ,#####''   ,,,,##########,,,,          '''####'''          '####       
            ,##' ,,,,###########################,,,                        '##       
           ' ,,###''''                  '''############,,,                           
         ,,##''                                '''############,,,,        ,,,,,,###''
      ,#''                                            '''#######################'''  
     '                                                          ''''####''''         
             ,#######,   #######,   ,#######,      ##                                
            ,#'     '#,  ##    ##  ,#'     '#,    #''#        ######   ,####,        
            ##       ##  ##   ,#'  ##            #'  '#       #        #'  '#        
            ##       ##  #######   ##           ,######,      #####,   #    #        
            '#,     ,#'  ##    ##  '#,     ,#' ,#      #,         ##   #,  ,#        
             '#######'   ##     ##  '#######'  #'      '#     #####' # '####'        



                  #######################################################
                  #                        -***-                        #
                  #          Department of theory and spectroscopy      #
                  #    Directorship and core code : Frank Neese         #
                  #        Max Planck Institute fuer Kohlenforschung    #
                  #                Kaiser Wilhelm Platz 1               #
                  #                 D-45470 Muelheim/Ruhr               #
                  #                      Germany                        #
                  #                                                     #
                  #                  All rights reserved                #
                  #                        -***-                        #
                  #######################################################


                         Program Version 5.0.3 -  RELEASE  -


 With contributions from (in alphabetic order):
   Daniel Aravena         : Magnetic Suceptibility
   Michael Atanasov       : Ab Initio Ligand Field Theory (pilot matlab implementation)
   Alexander A. Auer      : GIAO ZORA, VPT2 properties, NMR spectrum
   Ute Becker             : Parallelization
   Giovanni Bistoni       : ED, misc. LED, open-shell LED, HFLD
   Martin Brehm           : Molecular dynamics
   Dmytro Bykov           : SCF Hessian
   Vijay G. Chilkuri      : MRCI spin determinant printing, contributions to CSF-ICE
   Dipayan Datta          : RHF DLPNO-CCSD density
   Achintya Kumar Dutta   : EOM-CC, STEOM-CC
   Dmitry Ganyushin       : Spin-Orbit,Spin-Spin,Magnetic field MRCI
   Miquel Garcia          : C-PCM and meta-GGA Hessian, CC/C-PCM, Gaussian charge scheme
   Yang Guo               : DLPNO-NEVPT2, F12-NEVPT2, CIM, IAO-localization
   Andreas Hansen         : Spin unrestricted coupled pair/coupled cluster methods
   Benjamin Helmich-Paris : MC-RPA, TRAH-SCF, COSX integrals
   Lee Huntington         : MR-EOM, pCC
   Robert Izsak           : Overlap fitted RIJCOSX, COSX-SCS-MP3, EOM
   Marcus Kettner         : VPT2
   Christian Kollmar      : KDIIS, OOCD, Brueckner-CCSD(T), CCSD density, CASPT2, CASPT2-K
   Simone Kossmann        : Meta GGA functionals, TD-DFT gradient, OOMP2, MP2 Hessian
   Martin Krupicka        : Initial AUTO-CI
   Lucas Lang             : DCDCAS
   Marvin Lechner         : AUTO-CI (C++ implementation), FIC-MRCC
   Dagmar Lenk            : GEPOL surface, SMD
   Dimitrios Liakos       : Extrapolation schemes; Compound Job, initial MDCI parallelization
   Dimitrios Manganas     : Further ROCIS development; embedding schemes
   Dimitrios Pantazis     : SARC Basis sets
   Anastasios Papadopoulos: AUTO-CI, single reference methods and gradients
   Taras Petrenko         : DFT Hessian,TD-DFT gradient, ASA, ECA, R-Raman, ABS, FL, XAS/XES, NRVS
   Peter Pinski           : DLPNO-MP2, DLPNO-MP2 Gradient
   Christoph Reimann      : Effective Core Potentials
   Marius Retegan         : Local ZFS, SOC
   Christoph Riplinger    : Optimizer, TS searches, QM/MM, DLPNO-CCSD(T), (RO)-DLPNO pert. Triples
   Tobias Risthaus        : Range-separated hybrids, TD-DFT gradient, RPA, STAB
   Michael Roemelt        : Original ROCIS implementation
   Masaaki Saitow         : Open-shell DLPNO-CCSD energy and density
   Barbara Sandhoefer     : DKH picture change effects
   Avijit Sen             : IP-ROCIS
   Kantharuban Sivalingam : CASSCF convergence, NEVPT2, FIC-MRCI
   Bernardo de Souza      : ESD, SOC TD-DFT
   Georgi Stoychev        : AutoAux, RI-MP2 NMR, DLPNO-MP2 response
   Willem Van den Heuvel  : Paramagnetic NMR
   Boris Wezisla          : Elementary symmetry handling
   Frank Wennmohs         : Technical directorship


 We gratefully acknowledge several colleagues who have allowed us to
 interface, adapt or use parts of their codes:
   Stefan Grimme, W. Hujo, H. Kruse, P. Pracht,  : VdW corrections, initial TS optimization,
                  C. Bannwarth, S. Ehlert          DFT functionals, gCP, sTDA/sTD-DF
   Ed Valeev, F. Pavosevic, A. Kumar             : LibInt (2-el integral package), F12 methods
   Garnet Chan, S. Sharma, J. Yang, R. Olivares  : DMRG
   Ulf Ekstrom                                   : XCFun DFT Library
   Mihaly Kallay                                 : mrcc  (arbitrary order and MRCC methods)
   Jiri Pittner, Ondrej Demel                    : Mk-CCSD
   Frank Weinhold                                : gennbo (NPA and NBO analysis)
   Christopher J. Cramer and Donald G. Truhlar   : smd solvation model
   Lars Goerigk                                  : TD-DFT with DH, B97 family of functionals
   V. Asgeirsson, H. Jonsson                     : NEB implementation
   FAccTs GmbH                                   : IRC, NEB, NEB-TS, DLPNO-Multilevel, CI-OPT
                                                   MM, QMMM, 2- and 3-layer-ONIOM, Crystal-QMMM,
                                                   LR-CPCM, SF, NACMEs, symmetry and pop. for TD-DFT,
                                                   nearIR, NL-DFT gradient (VV10), updates on ESD,
                                                   ML-optimized integration grids
   S Lehtola, MJT Oliveira, MAL Marques          : LibXC Library
   Liviu Ungur et al                             : ANISO software


 Your calculation uses the libint2 library for the computation of 2-el integrals
 For citations please refer to: http://libint.valeyev.net

 Your ORCA version has been built with support for libXC version: 5.1.0
 For citations please refer to: https://tddft.org/programs/libxc/

 This ORCA versions uses:
   CBLAS   interface :  Fast vector & matrix operations
   LAPACKE interface :  Fast linear algebra routines
   SCALAPACK package :  Parallel linear algebra routines
   Shared memory     :  Shared parallel matrices
   BLAS/LAPACK       :  OpenBLAS 0.3.15  USE64BITINT DYNAMIC_ARCH NO_AFFINITY Zen SINGLE_THREADED
        Core in use  :  Zen
   Copyright (c) 2011-2014, The OpenBLAS Project


================================================================================

----- Orbital basis set information -----
Your calculation utilizes the basis: def2-TZVP
   F. Weigend and R. Ahlrichs, Phys. Chem. Chem. Phys. 7, 3297 (2005).

----- AuxJ basis set information -----
Your calculation utilizes the auxiliary basis: def2/J
   F. Weigend, Phys. Chem. Chem. Phys. 8, 1057 (2006).

================================================================================
                                        WARNINGS
                       Please study these warnings very carefully!
================================================================================


WARNING: your system is open-shell and RHF/RKS was chosen
  ===> : WILL SWITCH to UHF/UKS

INFO   : Checking CIS options ...

WARNING: CIS/ROCIS methods need fully converged wavefunctions
  ===> : Setting SCFConvForced true
         You can overwrite this default with %scf ConvForced false 


INFO   : the flag for use of the SHARK integral package has been found!

================================================================================
                                       INPUT FILE
================================================================================
NAME = /home/ABTLUS/mario.neto/Desktop/orca-out/benzene/benzene.inp
|  1> # avogadro generated ORCA file
|  2> # 
|  3> !B3LYP DEF2-TZVP CPCM(HEXANE) 
|  4> %TDDFT
|  5>    NROOTS 30
|  6> END
|  7> 
|  8> * xyz 0 5
|  9>    C     -0.016700    1.378100    0.009600
| 10>    C      0.002100   -0.004100    0.002000
| 11>    C      1.170900    2.085500    0.002100
| 12>    C      1.208400   -0.678900   -0.013200
| 13>    C      2.396000    0.028500   -0.021200
| 14>    C      2.377300    1.410700   -0.013100
| 15>    H     -0.959200    1.905400    0.017000
| 16>    H     -0.925800   -0.556700    0.008300
| 17>    H      1.156300    3.165400    0.007700
| 18>    H      1.223100   -1.758800   -0.018400
| 19>    H      3.338500   -0.498700   -0.032400
| 20>    H      3.305100    1.963400   -0.019700
| 21> *
| 22> 
| 23> 
| 24> 
| 25>                          ****END OF INPUT****
================================================================================

                       ****************************
                       * Single Point Calculation *
                       ****************************

---------------------------------
CARTESIAN COORDINATES (ANGSTROEM)
---------------------------------
  C     -0.016700    1.378100    0.009600
  C      0.002100   -0.004100    0.002000
  C      1.170900    2.085500    0.002100
  C      1.208400   -0.678900   -0.013200
  C      2.396000    0.028500   -0.021200
  C      2.377300    1.410700   -0.013100
  H     -0.959200    1.905400    0.017000
  H     -0.925800   -0.556700    0.008300
  H      1.156300    3.165400    0.007700
  H      1.223100   -1.758800   -0.018400
  H      3.338500   -0.498700   -0.032400
  H      3.305100    1.963400   -0.019700

----------------------------
CARTESIAN COORDINATES (A.U.)
----------------------------
  NO LB      ZA    FRAG     MASS         X           Y           Z
   0 C     6.0000    0    12.011   -0.031558    2.604232    0.018141
   1 C     6.0000    0    12.011    0.003968   -0.007748    0.003779
   2 C     6.0000    0    12.011    2.212680    3.941024    0.003968
   3 C     6.0000    0    12.011    2.283545   -1.282935   -0.024944
   4 C     6.0000    0    12.011    4.527784    0.053857   -0.040062
   5 C     6.0000    0    12.011    4.492446    2.665837   -0.024755
   6 H     1.0000    0     1.008   -1.812625    3.600684    0.032125
   7 H     1.0000    0     1.008   -1.749508   -1.052011    0.015685
   8 H     1.0000    0     1.008    2.185090    5.981739    0.014551
   9 H     1.0000    0     1.008    2.311324   -3.323650   -0.034771
  10 H     1.0000    0     1.008    6.308851   -0.942406   -0.061227
  11 H     1.0000    0     1.008    6.245734    3.710288   -0.037228

--------------------------------
INTERNAL COORDINATES (ANGSTROEM)
--------------------------------
 C      0   0   0     0.000000000000     0.00000000     0.00000000
 C      1   0   0     1.382348740369     0.00000000     0.00000000
 C      1   2   0     1.382340323509   119.99813724     0.00000000
 C      2   1   3     1.382297279893   120.00325704     0.00000000
 C      4   2   1     1.382343126724   119.99880161     0.00000000
 C      5   4   2     1.382350223352   120.00187638     0.04307233
 H      1   2   3     1.080002916663   120.00615837   179.73061495
 H      2   1   3     1.080002249998   119.99297390   179.97308092
 H      3   1   2     1.080013208253   120.00298669   179.97935852
 H      4   2   1     1.080012564742   120.00349903   179.95479747
 H      5   4   2     1.079986819364   120.00022786   179.95860163
 H      6   5   4     1.079969300490   120.00402036   180.02146370

---------------------------
INTERNAL COORDINATES (A.U.)
---------------------------
 C      0   0   0     0.000000000000     0.00000000     0.00000000
 C      1   0   0     2.612260540869     0.00000000     0.00000000
 C      1   2   0     2.612244635309   119.99813724     0.00000000
 C      2   1   3     2.612163294662   120.00325704     0.00000000
 C      4   2   1     2.612249932616   119.99880161     0.00000000
 C      5   4   2     2.612263343299   120.00187638     0.04307233
 H      1   2   3     2.040909736329   120.00615837   179.73061495
 H      2   1   3     2.040908476514   119.99297390   179.97308092
 H      3   1   2     2.040929184615   120.00298669   179.97935852
 H      4   2   1     2.040927968556   120.00349903   179.95479747
 H      5   4   2     2.040879316843   120.00022786   179.95860163
 H      6   5   4     2.040846210968   120.00402036   180.02146370

---------------------
BASIS SET INFORMATION
---------------------
There are 2 groups of distinct atoms

 Group   1 Type C   : 11s6p2d1f contracted to 5s3p2d1f pattern {62111/411/11/1}
 Group   2 Type H   : 5s1p contracted to 3s1p pattern {311/1}

Atom   0C    basis set group =>   1
Atom   1C    basis set group =>   1
Atom   2C    basis set group =>   1
Atom   3C    basis set group =>   1
Atom   4C    basis set group =>   1
Atom   5C    basis set group =>   1
Atom   6H    basis set group =>   2
Atom   7H    basis set group =>   2
Atom   8H    basis set group =>   2
Atom   9H    basis set group =>   2
Atom  10H    basis set group =>   2
Atom  11H    basis set group =>   2
---------------------------------
AUXILIARY/J BASIS SET INFORMATION
---------------------------------
There are 2 groups of distinct atoms

 Group   1 Type C   : 12s5p4d2f1g contracted to 6s4p3d1f1g pattern {711111/2111/211/2/1}
 Group   2 Type H   : 5s2p1d contracted to 3s1p1d pattern {311/2/1}

Atom   0C    basis set group =>   1
Atom   1C    basis set group =>   1
Atom   2C    basis set group =>   1
Atom   3C    basis set group =>   1
Atom   4C    basis set group =>   1
Atom   5C    basis set group =>   1
Atom   6H    basis set group =>   2
Atom   7H    basis set group =>   2
Atom   8H    basis set group =>   2
Atom   9H    basis set group =>   2
Atom  10H    basis set group =>   2
Atom  11H    basis set group =>   2
------------------------------------------------------------------------------
                           ORCA GTO INTEGRAL CALCULATION
                           -- RI-GTO INTEGRALS CHOSEN --
------------------------------------------------------------------------------
------------------------------------------------------------------------------
                   ___                                                        
                  /   \      - P O W E R E D   B Y -                         
                 /     \                                                     
                 |  |  |   _    _      __       _____    __    __             
                 |  |  |  | |  | |    /  \     |  _  \  |  |  /  |          
                  \  \/   | |  | |   /    \    | | | |  |  | /  /          
                 / \  \   | |__| |  /  /\  \   | |_| |  |  |/  /          
                |  |  |   |  __  | /  /__\  \  |    /   |      \           
                |  |  |   | |  | | |   __   |  |    \   |  |\   \          
                \     /   | |  | | |  |  |  |  | |\  \  |  | \   \       
                 \___/    |_|  |_| |__|  |__|  |_| \__\ |__|  \__/        
                                                                              
                      - O R C A' S   B I G   F R I E N D -                    
                                      &                                       
                       - I N T E G R A L  F E E D E R -                       
                                                                              
 v1 FN, 2020, v2 2021                                                         
------------------------------------------------------------------------------


Reading SHARK input file /home/ABTLUS/mario.neto/Desktop/orca-out/benzene/benzene.SHARKINP.tmp ... ok
----------------------
SHARK INTEGRAL PACKAGE
----------------------

Number of atoms                             ...     12
Number of basis functions                   ...    222
Number of shells                            ...     90
Maximum angular momentum                    ...      3
Integral batch strategy                     ... SHARK/LIBINT Hybrid
RI-J (if used) integral strategy            ... SPLIT-RIJ (Revised 2003 algorithm where possible)
Printlevel                                  ...      1
Contraction scheme used                     ... SEGMENTED contraction
Coulomb Range Separation                    ... NOT USED
Exchange Range Separation                   ... NOT USED
Finite Nucleus Model                        ... NOT USED
Auxiliary Coulomb fitting basis             ... AVAILABLE
   # of basis functions in Aux-J            ...    360
   # of shells in Aux-J                     ...    120
   Maximum angular momentum in Aux-J        ...      4
Auxiliary J/K fitting basis                 ... NOT available
Auxiliary Correlation fitting basis         ... NOT available
Auxiliary 'external' fitting basis          ... NOT available
Integral threshold                          ...     1.000000e-10
Primitive cut-off                           ...     1.000000e-11
Primitive pair pre-selection threshold      ...     1.000000e-11

Calculating pre-screening integrals         ... done (  0.0 sec) Dimension = 90
Organizing shell pair data                  ... done (  0.0 sec)
Shell pair information
Total number of shell pairs                 ...      4095
Shell pairs after pre-screening             ...      3957
Total number of primitive shell pairs       ...     12396
Primitive shell pairs kept                  ...      9489
          la=0 lb=0:   1089 shell pairs
          la=1 lb=0:   1110 shell pairs
          la=1 lb=1:    297 shell pairs
          la=2 lb=0:    570 shell pairs
          la=2 lb=1:    288 shell pairs
          la=2 lb=2:     78 shell pairs
          la=3 lb=0:    288 shell pairs
          la=3 lb=1:    144 shell pairs
          la=3 lb=2:     72 shell pairs
          la=3 lb=3:     21 shell pairs

Calculating one electron integrals          ... done (  0.0 sec)
Calculating RI/J V-Matrix + Cholesky decomp.... done (  0.0 sec)
Calculating Nuclear repulsion               ... done (  0.0 sec) ENN=    205.167052152905 Eh

SHARK setup successfully completed in   0.2 seconds

Maximum memory used throughout the entire GTOINT-calculation: 60.5 MB
-------------------------------------------------------------------------------
                                 ORCA SCF
-------------------------------------------------------------------------------

------------
SCF SETTINGS
------------
Hamiltonian:
 Density Functional     Method          .... DFT(GTOs)
 Exchange Functional    Exchange        .... B88
   X-Alpha parameter    XAlpha          ....  0.666667
   Becke's b parameter  XBeta           ....  0.004200
 Correlation Functional Correlation     .... LYP
 LDA part of GGA corr.  LDAOpt          .... VWN-5
 Gradients option       PostSCFGGA      .... off
 Hybrid DFT is turned on
   Fraction HF Exchange ScalHFX         ....  0.200000
   Scaling of DF-GGA-X  ScalDFX         ....  0.720000
   Scaling of DF-GGA-C  ScalDFC         ....  0.810000
   Scaling of DF-LDA-C  ScalLDAC        ....  1.000000
   Perturbative correction              ....  0.000000
   Density functional embedding theory  .... OFF
   NL short-range parameter             ....  4.800000
 RI-approximation to the Coulomb term is turned on
   Number of AuxJ basis functions       .... 360
   RIJ-COSX (HFX calculated with COS-X)).... on


General Settings:
 Integral files         IntName         .... /home/ABTLUS/mario.neto/Desktop/orca-out/benzene/benzene
 Hartree-Fock type      HFTyp           .... UHF
 Total Charge           Charge          ....    0
 Multiplicity           Mult            ....    5
 Number of Electrons    NEL             ....   42
 Basis Dimension        Dim             ....  222
 Nuclear Repulsion      ENuc            ....    205.1670521529 Eh

Convergence Acceleration:
 DIIS                   CNVDIIS         .... on
   Start iteration      DIISMaxIt       ....    12
   Startup error        DIISStart       ....  0.200000
   # of expansion vecs  DIISMaxEq       ....     5
   Bias factor          DIISBfac        ....   1.050
   Max. coefficient     DIISMaxC        ....  10.000
 Trust-Rad. Augm. Hess. CNVTRAH         .... auto
   Auto Start mean grad. ratio tolernc. ....  1.125000
   Auto Start start iteration           ....    20
   Auto Start num. interpolation iter.  ....    10
   Max. Number of Micro iterations      ....    16
   Max. Number of Macro iterations      .... Maxiter - #DIIS iter
   Number of Davidson start vectors     ....     2
   Converg. threshold I  (grad. norm)   ....   5.000e-05
   Converg. threshold II (energy diff.) ....   1.000e-06
   Grad. Scal. Fac. for Micro threshold ....   0.100
   Minimum threshold for Micro iter.    ....   0.010
   NR start threshold (gradient norm)   ....   0.001
   Initial trust radius                 ....   0.400
   Minimum AH scaling param. (alpha)    ....   1.000
   Maximum AH scaling param. (alpha)    .... 1000.000
   Orbital update algorithm             .... Taylor
   White noise on init. David. guess    .... on
   Maximum white noise                  ....   0.010
   Quad. conv. algorithm                .... NR
 SOSCF                  CNVSOSCF        .... off
 Level Shifting         CNVShift        .... on
   Level shift para.    LevelShift      ....    0.2500
   Turn off err/grad.   ShiftErr        ....    0.0010
 Zerner damping         CNVZerner       .... off
 Static damping         CNVDamp         .... on
   Fraction old density DampFac         ....    0.7000
   Max. Damping (<1)    DampMax         ....    0.9800
   Min. Damping (>=0)   DampMin         ....    0.0000
   Turn off err/grad.   DampErr         ....    0.1000
 Fernandez-Rico         CNVRico         .... off

SCF Procedure:
 Maximum # iterations   MaxIter         ....   125
 SCF integral mode      SCFMode         .... Direct
   Integral package                     .... SHARK and LIBINT hybrid scheme
 Reset frequency        DirectResetFreq ....    20
 Integral Threshold     Thresh          ....  1.000e-10 Eh
 Primitive CutOff       TCut            ....  1.000e-11 Eh

Convergence Tolerance:
 Convergence Check Mode ConvCheckMode   .... Total+1el-Energy
 Convergence forced     ConvForced      .... 1
 Energy Change          TolE            ....  1.000e-06 Eh
 1-El. energy change                    ....  1.000e-03 Eh
 DIIS Error             TolErr          ....  1.000e-06


Diagonalization of the overlap matrix:
Smallest eigenvalue                        ... 9.359e-06
Time for diagonalization                   ...    0.006 sec
Threshold for overlap eigenvalues          ... 1.000e-08
Number of eigenvalues below threshold      ... 0
Time for construction of square roots      ...    0.002 sec
Total time needed                          ...    0.008 sec

Time for model grid setup =    0.087 sec

------------------------------
INITIAL GUESS: MODEL POTENTIAL
------------------------------
Loading Hartree-Fock densities                     ... done
Calculating cut-offs                               ... done
Initializing the effective Hamiltonian             ... done
Setting up the integral package (SHARK)            ... done
Starting the Coulomb interaction                   ... done (   0.1 sec)
Reading the grid                                   ... done
Mapping shells                                     ... done
Starting the XC term evaluation                    ... done (   0.2 sec)
  promolecular density results
     # of electrons  =     41.997036129
     EX              =    -32.637418522
     EC              =     -1.379804068
     EX+EC           =    -34.017222591
Transforming the Hamiltonian                       ... done (   0.0 sec)
Diagonalizing the Hamiltonian                      ... done (   0.0 sec)
Back transforming the eigenvectors                 ... done (   0.0 sec)
Now organizing SCF variables                       ... done
                      ------------------
                      INITIAL GUESS DONE (   0.4 sec)
                      ------------------
-------------------
DFT GRID GENERATION
-------------------

General Integration Accuracy     IntAcc      ... 4.388
Radial Grid Type                 RadialGrid  ... OptM3 with GC (2021)
Angular Grid (max. ang.)         AngularGrid ... 4 (Lebedev-302)
Angular grid pruning method      GridPruning ... 4 (adaptive)
Weight generation scheme         WeightScheme... Becke
Basis function cutoff            BFCut       ... 1.0000e-10
Integration weight cutoff        WCut        ... 1.0000e-14
Angular grids for H and He will be reduced by one unit
Partially contracted basis set               ... off
Rotationally invariant grid construction     ... off

Total number of grid points                  ...    55489
Total number of batches                      ...      876
Average number of points per batch           ...       63
Average number of grid points per atom       ...     4624
Time for grid setup =    0.366 sec

--------------------
COSX GRID GENERATION
--------------------

GRIDX 1
-------
General Integration Accuracy     IntAcc      ... 3.816
Radial Grid Type                 RadialGrid  ... OptM3 with GC (2021)
Angular Grid (max. ang.)         AngularGrid ... 1 (Lebedev-50)
Angular grid pruning method      GridPruning ... 4 (adaptive)
Weight generation scheme         WeightScheme... Becke
Basis function cutoff            BFCut       ... 1.0000e-10
Integration weight cutoff        WCut        ... 1.0000e-14
Angular grids for H and He will be reduced by one unit
Partially contracted basis set               ... on
Rotationally invariant grid construction     ... off

Total number of grid points                  ...     7122
Total number of batches                      ...      114
Average number of points per batch           ...       62
Average number of grid points per atom       ...      594
UseSFitting                                  ... on

GRIDX 2
-------
General Integration Accuracy     IntAcc      ... 4.020
Radial Grid Type                 RadialGrid  ... OptM3 with GC (2021)
Angular Grid (max. ang.)         AngularGrid ... 2 (Lebedev-110)
Angular grid pruning method      GridPruning ... 4 (adaptive)
Weight generation scheme         WeightScheme... Becke
Basis function cutoff            BFCut       ... 1.0000e-10
Integration weight cutoff        WCut        ... 1.0000e-14
Angular grids for H and He will be reduced by one unit
Partially contracted basis set               ... on
Rotationally invariant grid construction     ... off

Total number of grid points                  ...    15454
Total number of batches                      ...      246
Average number of points per batch           ...       62
Average number of grid points per atom       ...     1288
UseSFitting                                  ... on

GRIDX 3
-------
General Integration Accuracy     IntAcc      ... 4.338
Radial Grid Type                 RadialGrid  ... OptM3 with GC (2021)
Angular Grid (max. ang.)         AngularGrid ... 3 (Lebedev-194)
Angular grid pruning method      GridPruning ... 4 (adaptive)
Weight generation scheme         WeightScheme... Becke
Basis function cutoff            BFCut       ... 1.0000e-10
Integration weight cutoff        WCut        ... 1.0000e-14
Angular grids for H and He will be reduced by one unit
Partially contracted basis set               ... on
Rotationally invariant grid construction     ... off

Total number of grid points                  ...    34005
Total number of batches                      ...      536
Average number of points per batch           ...       63
Average number of grid points per atom       ...     2834
UseSFitting                                  ... on

Time for X-Grid setup             =    0.481 sec


--------------------
CPCM SOLVATION MODEL
--------------------
CPCM parameters:
  Epsilon                                         ...       1.8900
  Refrac                                          ...       1.3750
  Rsolv                                           ...       1.3000
  Surface type                                    ... GAUSSIAN VDW
  Epsilon function type                           ...         CPCM
Radii:
 Radius for C  used is    3.8550 Bohr (=   2.0400 Ang.)
 Radius for H  used is    2.4944 Bohr (=   1.3200 Ang.)
Calculating surface                               ...        done! (  0.0s)
GEPOL surface points                              ...          698
GEPOL Volume                                      ...     757.3218
GEPOL Surface-area                                ...     440.2206
Calculating surface distance matrix               ...        done! (  0.0s)
Performing Cholesky decomposition & store         ...        done! (  0.0s)
Overall time for CPCM initialization              ...                 0.0s
--------------
SCF ITERATIONS
--------------
ITER       Energy         Delta-E        Max-DP      RMS-DP      [F,P]     Damp
               ***  Starting incremental Fock matrix formation  ***
  0   -231.7039923240   0.000000000000 0.03765820  0.00072539  0.0758763 0.7000
  1   -231.7759316843  -0.071939360242 0.03426373  0.00056270  0.0411192 0.7000
                               ***Turning on DIIS***
  2   -231.8080713979  -0.032139713657 0.05868800  0.00097934  0.0169277 0.0000
  3   -231.8549064116  -0.046835013675 0.02967687  0.00042244  0.0216273 0.0000
  4   -231.8670527831  -0.012146371484 0.00909186  0.00012977  0.0034750 0.0000
  5   -231.8674466537  -0.000393870579 0.00500501  0.00008281  0.0005610 0.0000
               *** Restarting incremental Fock matrix formation ***
                                   *** Resetting DIIS ***
  6   -231.8674167608   0.000029892890 0.00056335  0.00001778  0.0003488 0.0000
  7   -231.8674174828  -0.000000722079 0.00044227  0.00000578  0.0002651 0.0000
  8   -231.8674189709  -0.000001488092 0.00004762  0.00000123  0.0000742 0.0000
                 **** Energy Check signals convergence ****

               *****************************************************
               *                     SUCCESS                       *
               *           SCF CONVERGED AFTER   9 CYCLES          *
               *****************************************************

Old exchange energy                            =     -6.684043853 Eh
New exchange energy                            =     -6.684025494 Eh
Exchange energy change after final integration =      0.000018359 Eh
Total energy after final integration           =   -231.867400687 Eh
Final COS-X integration done in                =     8.147 sec

----------------
TOTAL SCF ENERGY
----------------

Total Energy       :         -231.86740069 Eh           -6309.43274 eV

Components:
Nuclear Repulsion  :          205.16705215 Eh            5582.87932 eV
Electronic Energy  :         -437.03445284 Eh          -11892.31206 eV
One Electron Energy:         -717.18956563 Eh          -19515.72024 eV
Two Electron Energy:          280.15511279 Eh            7623.40819 eV
Max COSX asymmetry :            0.00000095 Eh               0.00003 eV
CPCM Dielectric    :           -0.00128213 Eh              -0.03489 eV

Virial components:
Potential Energy   :         -463.73396862 Eh          -12618.84282 eV
Kinetic Energy     :          231.86656794 Eh            6309.41008 eV
Virial Ratio       :            2.00000359


DFT components:
N(Alpha)           :       23.000025791513 electrons
N(Beta)            :       19.000030217784 electrons
N(Total)           :       42.000056009297 electrons
E(X)               :      -26.521161412717 Eh       
E(C)               :       -1.616100395105 Eh       
E(XC)              :      -28.137261807822 Eh       
DFET-embed. en.    :        0.000000000000 Eh       
CPCM Solvation Model Properties:
Surface-charge          :           -0.02631830
Charge-correction       :            0.00005306 Eh               0.00144 eV
Free-energy (cav+disp)  :  This term is not implemented in the current solvation scheme

---------------
SCF CONVERGENCE
---------------

  Last Energy change         ...   -7.4425e-08  Tolerance :   1.0000e-06
  Last MAX-Density change    ...    0.0000e+00  Tolerance :   1.0000e-05
  Last RMS-Density change    ...    0.0000e+00  Tolerance :   1.0000e-06
  Last DIIS Error            ...    1.7382e-05  Tolerance :   1.0000e-06

             **** THE GBW FILE WAS UPDATED (/home/ABTLUS/mario.neto/Desktop/orca-out/benzene/benzene.gbw) ****
             **** DENSITY /home/ABTLUS/mario.neto/Desktop/orca-out/benzene/benzene.scfp WAS UPDATED ****
             **** ENERGY FILE WAS UPDATED (/home/ABTLUS/mario.neto/Desktop/orca-out/benzene/benzene.en.tmp) ****
----------------------
UHF SPIN CONTAMINATION
----------------------

Warning: in a DFT calculation there is little theoretical justification to 
         calculate <S**2> as in Hartree-Fock theory. We will do it anyways
         but you should keep in mind that the values have only limited relevance

Expectation value of <S**2>     :     6.012395
Ideal value S*(S+1) for S=2.0   :     6.000000
Deviation                       :     0.012395

             **** THE GBW FILE WAS UPDATED (/home/ABTLUS/mario.neto/Desktop/orca-out/benzene/benzene.gbw) ****
             **** DENSITY /home/ABTLUS/mario.neto/Desktop/orca-out/benzene/benzene.scfp WAS UPDATED ****
----------------
ORBITAL ENERGIES
----------------
                 SPIN UP ORBITALS
  NO   OCC          E(Eh)            E(eV) 
   0   1.0000     -10.172371      -276.8043 
   1   1.0000     -10.172127      -276.7977 
   2   1.0000     -10.172126      -276.7976 
   3   1.0000     -10.171525      -276.7813 
   4   1.0000     -10.171524      -276.7812 
   5   1.0000     -10.171222      -276.7730 
   6   1.0000      -0.883294       -24.0356 
   7   1.0000      -0.769642       -20.9430 
   8   1.0000      -0.769631       -20.9427 
   9   1.0000      -0.619082       -16.8461 
  10   1.0000      -0.619076       -16.8459 
  11   1.0000      -0.533815       -14.5258 
  12   1.0000      -0.465050       -12.6547 
  13   1.0000      -0.461764       -12.5652 
  14   1.0000      -0.429796       -11.6953 
  15   1.0000      -0.429792       -11.6952 
  16   1.0000      -0.420113       -11.4319 
  17   1.0000      -0.350232        -9.5303 
  18   1.0000      -0.350229        -9.5302 
  19   1.0000      -0.311316        -8.4713 
  20   1.0000      -0.311314        -8.4713 
  21   1.0000      -0.099001        -2.6940 
  22   1.0000      -0.098994        -2.6938 
  23   0.0000       0.049654         1.3512 
  24   0.0000       0.083065         2.2603 
  25   0.0000       0.083085         2.2608 
  26   0.0000       0.092742         2.5236 
  27   0.0000       0.109487         2.9793 
  28   0.0000       0.109507         2.9798 
  29   0.0000       0.133024         3.6198 
  30   0.0000       0.137622         3.7449 
  31   0.0000       0.190394         5.1809 
  32   0.0000       0.212578         5.7845 
  33   0.0000       0.219401         5.9702 
  34   0.0000       0.219403         5.9703 
  35   0.0000       0.222835         6.0637 
  36   0.0000       0.222860         6.0643 
  37   0.0000       0.233093         6.3428 
  38   0.0000       0.233102         6.3430 
  39   0.0000       0.273284         7.4364 
  40   0.0000       0.273325         7.4376 
  41   0.0000       0.310687         8.4542 
  42   0.0000       0.310698         8.4545 
  43   0.0000       0.328606         8.9418 
  44   0.0000       0.344493         9.3741 
  45   0.0000       0.344513         9.3747 
  46   0.0000       0.377253        10.2656 
  47   0.0000       0.387773        10.5518 
  48   0.0000       0.413905        11.2629 
  49   0.0000       0.413921        11.2634 
  50   0.0000       0.432099        11.7580 
  51   0.0000       0.435053        11.8384 
  52   0.0000       0.435080        11.8391 
  53   0.0000       0.442173        12.0321 
  54   0.0000       0.472615        12.8605 
  55   0.0000       0.486223        13.2308 
  56   0.0000       0.489161        13.3107 
  57   0.0000       0.489165        13.3109 
  58   0.0000       0.506754        13.7895 
  59   0.0000       0.506787        13.7904 
  60   0.0000       0.628093        17.0913 
  61   0.0000       0.642941        17.4953 
  62   0.0000       0.642979        17.4963 
  63   0.0000       0.678434        18.4611 
  64   0.0000       0.686591        18.6831 
  65   0.0000       0.731431        19.9032 
  66   0.0000       0.731551        19.9065 
  67   0.0000       0.753641        20.5076 
  68   0.0000       0.753738        20.5103 
  69   0.0000       0.797326        21.6964 
  70   0.0000       0.827107        22.5067 
  71   0.0000       0.827135        22.5075 
  72   0.0000       0.850553        23.1447 
  73   0.0000       0.870642        23.6914 
  74   0.0000       0.894709        24.3463 
  75   0.0000       0.991961        26.9926 
  76   0.0000       0.992018        26.9942 
  77   0.0000       0.997126        27.1332 
  78   0.0000       0.997172        27.1344 
  79   0.0000       1.036111        28.1940 
  80   0.0000       1.036176        28.1958 
  81   0.0000       1.154671        31.4202 
  82   0.0000       1.177640        32.0452 
  83   0.0000       1.177682        32.0464 
  84   0.0000       1.191224        32.4149 
  85   0.0000       1.191248        32.4155 
  86   0.0000       1.207538        32.8588 
  87   0.0000       1.207590        32.8602 
  88   0.0000       1.252355        34.0783 
  89   0.0000       1.252376        34.0789 
  90   0.0000       1.280840        34.8534 
  91   0.0000       1.357329        36.9348 
  92   0.0000       1.366801        37.1925 
  93   0.0000       1.384436        37.6724 
  94   0.0000       1.451617        39.5005 
  95   0.0000       1.451670        39.5020 
  96   0.0000       1.452930        39.5362 
  97   0.0000       1.452949        39.5368 
  98   0.0000       1.482394        40.3380 
  99   0.0000       1.482416        40.3386 
 100   0.0000       1.587050        43.1858 
 101   0.0000       1.606895        43.7258 
 102   0.0000       1.636469        44.5306 
 103   0.0000       1.636516        44.5319 
 104   0.0000       1.644043        44.7367 
 105   0.0000       1.677393        45.6442 
 106   0.0000       1.697532        46.1922 
 107   0.0000       1.697554        46.1928 
 108   0.0000       1.701218        46.2925 
 109   0.0000       1.701276        46.2941 
 110   0.0000       1.755086        47.7583 
 111   0.0000       1.817826        49.4656 
 112   0.0000       1.901780        51.7501 
 113   0.0000       1.901813        51.7510 
 114   0.0000       2.033826        55.3432 
 115   0.0000       2.033844        55.3437 
 116   0.0000       2.059696        56.0472 
 117   0.0000       2.059710        56.0475 
 118   0.0000       2.069333        56.3094 
 119   0.0000       2.092196        56.9316 
 120   0.0000       2.153718        58.6057 
 121   0.0000       2.153730        58.6060 
 122   0.0000       2.206372        60.0384 
 123   0.0000       2.224266        60.5253 
 124   0.0000       2.224271        60.5255 
 125   0.0000       2.296733        62.4973 
 126   0.0000       2.465049        67.0774 
 127   0.0000       2.466675        67.1216 
 128   0.0000       2.466742        67.1235 
 129   0.0000       2.545776        69.2741 
 130   0.0000       2.556496        69.5658 
 131   0.0000       2.557123        69.5828 
 132   0.0000       2.557207        69.5851 
 133   0.0000       2.559387        69.6445 
 134   0.0000       2.646919        72.0263 
 135   0.0000       2.646939        72.0269 
 136   0.0000       2.659380        72.3654 
 137   0.0000       2.659416        72.3664 
 138   0.0000       2.671521        72.6958 
 139   0.0000       2.688247        73.1509 
 140   0.0000       2.688260        73.1513 
 141   0.0000       2.723173        74.1013 
 142   0.0000       2.723238        74.1031 
 143   0.0000       2.733381        74.3791 
 144   0.0000       2.791580        75.9627 
 145   0.0000       2.805529        76.3423 
 146   0.0000       2.805582        76.3438 
 147   0.0000       2.815634        76.6173 
 148   0.0000       2.823809        76.8397 
 149   0.0000       2.823814        76.8399 
 150   0.0000       2.851563        77.5950 
 151   0.0000       2.851598        77.5959 
 152   0.0000       2.896629        78.8213 
 153   0.0000       2.985487        81.2392 
 154   0.0000       3.066765        83.4509 
 155   0.0000       3.066797        83.4518 
 156   0.0000       3.086248        83.9811 
 157   0.0000       3.086275        83.9818 
 158   0.0000       3.120462        84.9121 
 159   0.0000       3.120549        84.9144 
 160   0.0000       3.126789        85.0842 
 161   0.0000       3.126842        85.0857 
 162   0.0000       3.184059        86.6427 
 163   0.0000       3.221768        87.6688 
 164   0.0000       3.224499        87.7431 
 165   0.0000       3.224577        87.7452 
 166   0.0000       3.251184        88.4692 
 167   0.0000       3.251185        88.4692 
 168   0.0000       3.280979        89.2800 
 169   0.0000       3.330977        90.6405 
 170   0.0000       3.363015        91.5123 
 171   0.0000       3.363028        91.5126 
 172   0.0000       3.383460        92.0686 
 173   0.0000       3.435263        93.4782 
 174   0.0000       3.435294        93.4791 
 175   0.0000       3.496897        95.1554 
 176   0.0000       3.504001        95.3487 
 177   0.0000       3.513470        95.6064 
 178   0.0000       3.513504        95.6073 
 179   0.0000       3.607236        98.1579 
 180   0.0000       3.629252        98.7570 
 181   0.0000       3.629305        98.7584 
 182   0.0000       3.751579       102.0856 
 183   0.0000       3.751660       102.0879 
 184   0.0000       3.760738       102.3349 
 185   0.0000       3.794215       103.2458 
 186   0.0000       3.858655       104.9993 
 187   0.0000       4.001187       108.8778 
 188   0.0000       4.001243       108.8794 
 189   0.0000       4.062612       110.5493 
 190   0.0000       4.076595       110.9298 
 191   0.0000       4.076631       110.9308 
 192   0.0000       4.125632       112.2642 
 193   0.0000       4.193919       114.1223 
 194   0.0000       4.194038       114.1256 
 195   0.0000       4.202832       114.3649 
 196   0.0000       4.216277       114.7307 
 197   0.0000       4.216314       114.7317 
 198   0.0000       4.302641       117.0808 
 199   0.0000       4.302657       117.0812 
 200   0.0000       4.306961       117.1984 
 201   0.0000       4.306998       117.1994 
 202   0.0000       4.628287       125.9421 
 203   0.0000       4.629493       125.9749 
 204   0.0000       4.629502       125.9751 
 205   0.0000       4.655222       126.6750 
 206   0.0000       4.836346       131.6037 
 207   0.0000       4.836371       131.6043 
 208   0.0000       4.900634       133.3530 
 209   0.0000       4.900655       133.3536 
 210   0.0000       5.237963       142.5322 
 211   0.0000       5.237990       142.5330 
 212   0.0000       5.270227       143.4102 
 213   0.0000       5.285599       143.8285 
 214   0.0000       5.443277       148.1191 
 215   0.0000       5.612163       152.7147 
 216   0.0000      21.846842       594.4828 
 217   0.0000      22.568953       614.1324 
 218   0.0000      22.569012       614.1340 
 219   0.0000      22.674595       617.0071 
 220   0.0000      22.674602       617.0073 
 221   0.0000      23.112126       628.9129 

                 SPIN DOWN ORBITALS
  NO   OCC          E(Eh)            E(eV) 
   0   1.0000     -10.162470      -276.5349 
   1   1.0000     -10.162220      -276.5281 
   2   1.0000     -10.162219      -276.5280 
   3   1.0000     -10.161629      -276.5120 
   4   1.0000     -10.161628      -276.5120 
   5   1.0000     -10.161344      -276.5042 
   6   1.0000      -0.849452       -23.1148 
   7   1.0000      -0.732957       -19.9448 
   8   1.0000      -0.732944       -19.9444 
   9   1.0000      -0.591342       -16.0912 
  10   1.0000      -0.591336       -16.0911 
  11   1.0000      -0.524259       -14.2658 
  12   1.0000      -0.447286       -12.1713 
  13   1.0000      -0.445695       -12.1280 
  14   1.0000      -0.420605       -11.4452 
  15   1.0000      -0.420600       -11.4451 
  16   1.0000      -0.340179        -9.2567 
  17   1.0000      -0.340176        -9.2567 
  18   1.0000      -0.321727        -8.7546 
  19   0.0000      -0.167944        -4.5700 
  20   0.0000      -0.167941        -4.5699 
  21   0.0000       0.034410         0.9363 
  22   0.0000       0.034413         0.9364 
  23   0.0000       0.053245         1.4489 
  24   0.0000       0.085238         2.3194 
  25   0.0000       0.085257         2.3199 
  26   0.0000       0.115049         3.1306 
  27   0.0000       0.115071         3.1313 
  28   0.0000       0.137835         3.7507 
  29   0.0000       0.149182         4.0594 
  30   0.0000       0.182461         4.9650 
  31   0.0000       0.212838         5.7916 
  32   0.0000       0.215352         5.8600 
  33   0.0000       0.223656         6.0860 
  34   0.0000       0.223661         6.0861 
  35   0.0000       0.238601         6.4926 
  36   0.0000       0.238615         6.4930 
  37   0.0000       0.258664         7.0386 
  38   0.0000       0.258667         7.0387 
  39   0.0000       0.279088         7.5944 
  40   0.0000       0.279128         7.5955 
  41   0.0000       0.332298         9.0423 
  42   0.0000       0.343637         9.3508 
  43   0.0000       0.343645         9.3511 
  44   0.0000       0.368473        10.0267 
  45   0.0000       0.368485        10.0270 
  46   0.0000       0.403083        10.9684 
  47   0.0000       0.420783        11.4501 
  48   0.0000       0.420794        11.4504 
  49   0.0000       0.425483        11.5780 
  50   0.0000       0.436571        11.8797 
  51   0.0000       0.452098        12.3022 
  52   0.0000       0.452113        12.3026 
  53   0.0000       0.468968        12.7613 
  54   0.0000       0.473842        12.8939 
  55   0.0000       0.498112        13.5543 
  56   0.0000       0.498782        13.5725 
  57   0.0000       0.498797        13.5729 
  58   0.0000       0.518804        14.1174 
  59   0.0000       0.518837        14.1183 
  60   0.0000       0.652192        17.7471 
  61   0.0000       0.652219        17.7478 
  62   0.0000       0.676147        18.3989 
  63   0.0000       0.699649        19.0384 
  64   0.0000       0.709683        19.3114 
  65   0.0000       0.759008        20.6537 
  66   0.0000       0.760065        20.6824 
  67   0.0000       0.761461        20.7204 
  68   0.0000       0.762492        20.7485 
  69   0.0000       0.803990        21.8777 
  70   0.0000       0.854866        23.2621 
  71   0.0000       0.869366        23.6567 
  72   0.0000       0.869434        23.6585 
  73   0.0000       0.896408        24.3925 
  74   0.0000       0.900325        24.4991 
  75   0.0000       1.008652        27.4468 
  76   0.0000       1.008685        27.4477 
  77   0.0000       1.019620        27.7453 
  78   0.0000       1.019658        27.7463 
  79   0.0000       1.068844        29.0847 
  80   0.0000       1.068888        29.0859 
  81   0.0000       1.183705        32.2102 
  82   0.0000       1.183745        32.2113 
  83   0.0000       1.187392        32.3106 
  84   0.0000       1.216565        33.1044 
  85   0.0000       1.216581        33.1048 
  86   0.0000       1.246431        33.9171 
  87   0.0000       1.246472        33.9182 
  88   0.0000       1.257911        34.2295 
  89   0.0000       1.257934        34.2301 
  90   0.0000       1.295225        35.2449 
  91   0.0000       1.388460        37.7819 
  92   0.0000       1.394514        37.9467 
  93   0.0000       1.409377        38.3511 
  94   0.0000       1.464695        39.8564 
  95   0.0000       1.464735        39.8575 
  96   0.0000       1.496546        40.7231 
  97   0.0000       1.496555        40.7233 
  98   0.0000       1.502683        40.8901 
  99   0.0000       1.502705        40.8907 
 100   0.0000       1.618880        44.0520 
 101   0.0000       1.624871        44.2150 
 102   0.0000       1.650000        44.8988 
 103   0.0000       1.691361        46.0243 
 104   0.0000       1.691385        46.0249 
 105   0.0000       1.692125        46.0451 
 106   0.0000       1.705230        46.4017 
 107   0.0000       1.705244        46.4021 
 108   0.0000       1.711281        46.5663 
 109   0.0000       1.711328        46.5676 
 110   0.0000       1.780552        48.4513 
 111   0.0000       1.866805        50.7983 
 112   0.0000       1.921773        52.2941 
 113   0.0000       1.921806        52.2950 
 114   0.0000       2.052845        55.8607 
 115   0.0000       2.052864        55.8613 
 116   0.0000       2.075598        56.4799 
 117   0.0000       2.084160        56.7129 
 118   0.0000       2.084176        56.7133 
 119   0.0000       2.099787        57.1381 
 120   0.0000       2.173052        59.1317 
 121   0.0000       2.173069        59.1322 
 122   0.0000       2.232036        60.7368 
 123   0.0000       2.247373        61.1541 
 124   0.0000       2.247379        61.1543 
 125   0.0000       2.332926        63.4821 
 126   0.0000       2.486048        67.6488 
 127   0.0000       2.486112        67.6506 
 128   0.0000       2.488928        67.7272 
 129   0.0000       2.553827        69.4932 
 130   0.0000       2.567040        69.8527 
 131   0.0000       2.578401        70.1618 
 132   0.0000       2.578488        70.1642 
 133   0.0000       2.605063        70.8874 
 134   0.0000       2.680245        72.9332 
 135   0.0000       2.680313        72.9350 
 136   0.0000       2.683817        73.0304 
 137   0.0000       2.683851        73.0313 
 138   0.0000       2.688189        73.1494 
 139   0.0000       2.693885        73.3043 
 140   0.0000       2.693895        73.3046 
 141   0.0000       2.756727        75.0144 
 142   0.0000       2.763704        75.2042 
 143   0.0000       2.763758        75.2057 
 144   0.0000       2.816559        76.6425 
 145   0.0000       2.816623        76.6442 
 146   0.0000       2.818576        76.6973 
 147   0.0000       2.854856        77.6846 
 148   0.0000       2.854867        77.6849 
 149   0.0000       2.873695        78.1972 
 150   0.0000       2.873724        78.1980 
 151   0.0000       2.874094        78.2081 
 152   0.0000       2.913788        79.2882 
 153   0.0000       3.031817        82.4999 
 154   0.0000       3.099662        84.3461 
 155   0.0000       3.099683        84.3467 
 156   0.0000       3.103765        84.4577 
 157   0.0000       3.103786        84.4583 
 158   0.0000       3.159891        85.9850 
 159   0.0000       3.159956        85.9868 
 160   0.0000       3.172072        86.3165 
 161   0.0000       3.172098        86.3172 
 162   0.0000       3.191299        86.8396 
 163   0.0000       3.228231        87.8446 
 164   0.0000       3.228309        87.8468 
 165   0.0000       3.263019        88.7913 
 166   0.0000       3.280348        89.2628 
 167   0.0000       3.280358        89.2631 
 168   0.0000       3.325745        90.4981 
 169   0.0000       3.376704        91.8848 
 170   0.0000       3.387076        92.1670 
 171   0.0000       3.405203        92.6603 
 172   0.0000       3.405209        92.6605 
 173   0.0000       3.447992        93.8246 
 174   0.0000       3.448022        93.8254 
 175   0.0000       3.512387        95.5769 
 176   0.0000       3.528976        96.0283 
 177   0.0000       3.562435        96.9388 
 178   0.0000       3.562459        96.9394 
 179   0.0000       3.638889        99.0192 
 180   0.0000       3.638938        99.0205 
 181   0.0000       3.640090        99.0519 
 182   0.0000       3.781611       102.9029 
 183   0.0000       3.787614       103.0662 
 184   0.0000       3.787737       103.0696 
 185   0.0000       3.807562       103.6090 
 186   0.0000       3.875037       105.4451 
 187   0.0000       4.020331       109.3988 
 188   0.0000       4.020381       109.4001 
 189   0.0000       4.103508       111.6621 
 190   0.0000       4.104076       111.6776 
 191   0.0000       4.104531       111.6900 
 192   0.0000       4.140337       112.6643 
 193   0.0000       4.215330       114.7050 
 194   0.0000       4.237797       115.3163 
 195   0.0000       4.237882       115.3186 
 196   0.0000       4.266240       116.0903 
 197   0.0000       4.266287       116.0916 
 198   0.0000       4.315931       117.4424 
 199   0.0000       4.315957       117.4432 
 200   0.0000       4.317242       117.4781 
 201   0.0000       4.317273       117.4790 
 202   0.0000       4.652279       126.5950 
 203   0.0000       4.652289       126.5952 
 204   0.0000       4.670405       127.0882 
 205   0.0000       4.698352       127.8487 
 206   0.0000       4.853713       132.0762 
 207   0.0000       4.853739       132.0770 
 208   0.0000       4.910879       133.6318 
 209   0.0000       4.910903       133.6325 
 210   0.0000       5.248012       142.8057 
 211   0.0000       5.248032       142.8062 
 212   0.0000       5.294616       144.0738 
 213   0.0000       5.302768       144.2957 
 214   0.0000       5.453328       148.3926 
 215   0.0000       5.626253       153.0981 
 216   0.0000      21.858738       594.8065 
 217   0.0000      22.580872       614.4568 
 218   0.0000      22.580933       614.4584 
 219   0.0000      22.686209       617.3231 
 220   0.0000      22.686216       617.3233 
 221   0.0000      23.123616       629.2256 

                    ********************************
                    * MULLIKEN POPULATION ANALYSIS *
                    ********************************

--------------------------------------------
MULLIKEN ATOMIC CHARGES AND SPIN POPULATIONS
--------------------------------------------
   0 C :   -0.129533    0.705817
   1 C :   -0.129646    0.705706
   2 C :   -0.129658    0.705548
   3 C :   -0.129652    0.705410
   4 C :   -0.129494    0.705808
   5 C :   -0.129702    0.705863
   6 H :    0.129643   -0.039014
   7 H :    0.129646   -0.039022
   8 H :    0.129531   -0.039036
   9 H :    0.129527   -0.039033
  10 H :    0.129667   -0.039021
  11 H :    0.129672   -0.039024
Sum of atomic charges         :    0.0000000
Sum of atomic spin populations:    4.0000000

-----------------------------------------------------
MULLIKEN REDUCED ORBITAL CHARGES AND SPIN POPULATIONS
-----------------------------------------------------
CHARGE
  0 C s       :     3.205124  s :     3.205124
      pz      :     0.949908  p :     2.821874
      px      :     0.961350
      py      :     0.910616
      dz2     :     0.005264  d :     0.095283
      dxz     :     0.015519
      dyz     :     0.026180
      dx2y2   :     0.021716
      dxy     :     0.026604
      f0      :     0.001196  f :     0.007252
      f+1     :     0.000619
      f-1     :     0.000535
      f+2     :     0.000959
      f-2     :     0.000459
      f+3     :     0.002278
      f-3     :     0.001207
  1 C s       :     3.205099  s :     3.205099
      pz      :     0.949838  p :     2.821986
      px      :     0.959294
      py      :     0.912855
      dz2     :     0.005277  d :     0.095308
      dxz     :     0.016001
      dyz     :     0.025702
      dx2y2   :     0.021205
      dxy     :     0.027123
      f0      :     0.001196  f :     0.007254
      f+1     :     0.000616
      f-1     :     0.000538
      f+2     :     0.001011
      f-2     :     0.000406
      f+3     :     0.002279
      f-3     :     0.001208
  2 C s       :     3.205179  s :     3.205179
      pz      :     0.949776  p :     2.821889
      px      :     0.887261
      py      :     0.984852
      dz2     :     0.005282  d :     0.095338
      dxz     :     0.031034
      dyz     :     0.010655
      dx2y2   :     0.029620
      dxy     :     0.018747
      f0      :     0.001194  f :     0.007251
      f+1     :     0.000497
      f-1     :     0.000658
      f+2     :     0.000156
      f-2     :     0.001260
      f+3     :     0.002277
      f-3     :     0.001209
  3 C s       :     3.205185  s :     3.205185
      pz      :     0.949780  p :     2.821882
      px      :     0.887255
      py      :     0.984847
      dz2     :     0.005283  d :     0.095334
      dxz     :     0.031036
      dyz     :     0.010654
      dx2y2   :     0.029620
      dxy     :     0.018741
      f0      :     0.001194  f :     0.007252
      f+1     :     0.000497
      f-1     :     0.000658
      f+2     :     0.000156
      f-2     :     0.001260
      f+3     :     0.002278
      f-3     :     0.001209
  4 C s       :     3.204986  s :     3.204986
      pz      :     0.949893  p :     2.821973
      px      :     0.961428
      py      :     0.910652
      dz2     :     0.005265  d :     0.095284
      dxz     :     0.015520
      dyz     :     0.026180
      dx2y2   :     0.021716
      dxy     :     0.026603
      f0      :     0.001196  f :     0.007252
      f+1     :     0.000619
      f-1     :     0.000535
      f+2     :     0.000959
      f-2     :     0.000459
      f+3     :     0.002278
      f-3     :     0.001207
  5 C s       :     3.205138  s :     3.205138
      pz      :     0.949837  p :     2.822002
      px      :     0.959253
      py      :     0.912912
      dz2     :     0.005274  d :     0.095308
      dxz     :     0.016000
      dyz     :     0.025699
      dx2y2   :     0.021213
      dxy     :     0.027122
      f0      :     0.001196  f :     0.007254
      f+1     :     0.000616
      f-1     :     0.000539
      f+2     :     0.001011
      f-2     :     0.000406
      f+3     :     0.002278
      f-3     :     0.001208
  6 H s       :     0.847247  s :     0.847247
      pz      :     0.005853  p :     0.023110
      px      :     0.011291
      py      :     0.005966
  7 H s       :     0.847246  s :     0.847246
      pz      :     0.005852  p :     0.023108
      px      :     0.011051
      py      :     0.006204
  8 H s       :     0.847363  s :     0.847363
      pz      :     0.005852  p :     0.023105
      px      :     0.003542
      py      :     0.013712
  9 H s       :     0.847368  s :     0.847368
      pz      :     0.005852  p :     0.023105
      px      :     0.003541
      py      :     0.013712
 10 H s       :     0.847223  s :     0.847223
      pz      :     0.005854  p :     0.023110
      px      :     0.011291
      py      :     0.005965
 11 H s       :     0.847219  s :     0.847219
      pz      :     0.005853  p :     0.023109
      px      :     0.011051
      py      :     0.006205

SPIN
  0 C s       :     0.024077  s :     0.024077
      pz      :     0.626133  p :     0.643644
      px      :     0.017157
      py      :     0.000354
      dz2     :    -0.002316  d :     0.037602
      dxz     :     0.010122
      dyz     :     0.024491
      dx2y2   :     0.001979
      dxy     :     0.003326
      f0      :    -0.000047  f :     0.000494
      f+1     :    -0.000496
      f-1     :    -0.000491
      f+2     :     0.000959
      f-2     :     0.000461
      f+3     :     0.000099
      f-3     :     0.000009
  1 C s       :     0.024031  s :     0.024031
      pz      :     0.625979  p :     0.643574
      px      :     0.016492
      py      :     0.001102
      dz2     :    -0.002308  d :     0.037607
      dxz     :     0.010766
      dyz     :     0.023844
      dx2y2   :     0.001838
      dxy     :     0.003467
      f0      :    -0.000047  f :     0.000494
      f+1     :    -0.000495
      f-1     :    -0.000491
      f+2     :     0.001011
      f-2     :     0.000408
      f+3     :     0.000099
      f-3     :     0.000009
  2 C s       :     0.023946  s :     0.023946
      pz      :     0.626067  p :     0.643522
      px      :    -0.007285
      py      :     0.024740
      dz2     :    -0.002310  d :     0.037589
      dxz     :     0.031028
      dyz     :     0.003574
      dx2y2   :     0.004135
      dxy     :     0.001161
      f0      :    -0.000047  f :     0.000491
      f+1     :    -0.000489
      f-1     :    -0.000498
      f+2     :     0.000159
      f-2     :     0.001259
      f+3     :     0.000099
      f-3     :     0.000009
  3 C s       :     0.023925  s :     0.023925
      pz      :     0.625935  p :     0.643402
      px      :    -0.007278
      py      :     0.024744
      dz2     :    -0.002309  d :     0.037591
      dxz     :     0.031029
      dyz     :     0.003573
      dx2y2   :     0.004137
      dxy     :     0.001162
      f0      :    -0.000047  f :     0.000491
      f+1     :    -0.000489
      f-1     :    -0.000498
      f+2     :     0.000159
      f-2     :     0.001259
      f+3     :     0.000099
      f-3     :     0.000009
  4 C s       :     0.024063  s :     0.024063
      pz      :     0.626078  p :     0.643649
      px      :     0.017216
      py      :     0.000355
      dz2     :    -0.002316  d :     0.037602
      dxz     :     0.010120
      dyz     :     0.024492
      dx2y2   :     0.001979
      dxy     :     0.003327
      f0      :    -0.000047  f :     0.000494
      f+1     :    -0.000496
      f-1     :    -0.000491
      f+2     :     0.000959
      f-2     :     0.000460
      f+3     :     0.000099
      f-3     :     0.000009
  5 C s       :     0.024056  s :     0.024056
      pz      :     0.626112  p :     0.643709
      px      :     0.016481
      py      :     0.001116
      dz2     :    -0.002309  d :     0.037604
      dxz     :     0.010765
      dyz     :     0.023841
      dx2y2   :     0.001837
      dxy     :     0.003469
      f0      :    -0.000047  f :     0.000494
      f+1     :    -0.000495
      f-1     :    -0.000491
      f+2     :     0.001011
      f-2     :     0.000408
      f+3     :     0.000099
      f-3     :     0.000009
  6 H s       :    -0.043772  s :    -0.043772
      pz      :     0.004559  p :     0.004758
      px      :     0.000205
      py      :    -0.000006
  7 H s       :    -0.043779  s :    -0.043779
      pz      :     0.004558  p :     0.004757
      px      :     0.000196
      py      :     0.000004
  8 H s       :    -0.043793  s :    -0.043793
      pz      :     0.004559  p :     0.004757
      px      :    -0.000102
      py      :     0.000300
  9 H s       :    -0.043789  s :    -0.043789
      pz      :     0.004558  p :     0.004756
      px      :    -0.000102
      py      :     0.000300
 10 H s       :    -0.043779  s :    -0.043779
      pz      :     0.004559  p :     0.004758
      px      :     0.000205
      py      :    -0.000006
 11 H s       :    -0.043783  s :    -0.043783
      pz      :     0.004559  p :     0.004759
      px      :     0.000196
      py      :     0.000004


                     *******************************
                     * LOEWDIN POPULATION ANALYSIS *
                     *******************************

-------------------------------------------
LOEWDIN ATOMIC CHARGES AND SPIN POPULATIONS
-------------------------------------------
   0 C :   -0.143857    0.665622
   1 C :   -0.143863    0.665556
   2 C :   -0.143866    0.665672
   3 C :   -0.143871    0.665549
   4 C :   -0.143856    0.665617
   5 C :   -0.143845    0.665675
   6 H :    0.143866    0.001051
   7 H :    0.143868    0.001051
   8 H :    0.143849    0.001050
   9 H :    0.143859    0.001050
  10 H :    0.143861    0.001052
  11 H :    0.143855    0.001054

----------------------------------------------------
LOEWDIN REDUCED ORBITAL CHARGES AND SPIN POPULATIONS
----------------------------------------------------
CHARGE
  0 C s       :     2.760713  s :     2.760713
      pz      :     0.831815  p :     2.896737
      px      :     1.011747
      py      :     1.053176
      dz2     :     0.026944  d :     0.438128
      dxz     :     0.049413
      dyz     :     0.086220
      dx2y2   :     0.123598
      dxy     :     0.151953
      f0      :     0.005555  f :     0.048278
      f+1     :     0.003600
      f-1     :     0.004260
      f+2     :     0.006417
      f-2     :     0.003523
      f+3     :     0.016462
      f-3     :     0.008462
  1 C s       :     2.760700  s :     2.760700
      pz      :     0.831835  p :     2.896743
      px      :     1.013601
      py      :     1.051306
      dz2     :     0.026959  d :     0.438141
      dxz     :     0.051064
      dyz     :     0.084569
      dx2y2   :     0.120661
      dxy     :     0.154888
      f0      :     0.005554  f :     0.048279
      f+1     :     0.003632
      f-1     :     0.004230
      f+2     :     0.006719
      f-2     :     0.003221
      f+3     :     0.016462
      f-3     :     0.008462
  2 C s       :     2.760727  s :     2.760727
      pz      :     0.831830  p :     2.896739
      px      :     1.072018
      py      :     0.992892
      dz2     :     0.026958  d :     0.438126
      dxz     :     0.102961
      dyz     :     0.032666
      dx2y2   :     0.169065
      dxy     :     0.106475
      f0      :     0.005554  f :     0.048274
      f+1     :     0.004561
      f-1     :     0.003301
      f+2     :     0.001775
      f-2     :     0.008164
      f+3     :     0.016460
      f-3     :     0.008460
  3 C s       :     2.760705  s :     2.760705
      pz      :     0.831828  p :     2.896743
      px      :     1.072028
      py      :     0.992888
      dz2     :     0.026959  d :     0.438145
      dxz     :     0.102970
      dyz     :     0.032663
      dx2y2   :     0.169073
      dxy     :     0.106480
      f0      :     0.005553  f :     0.048279
      f+1     :     0.004561
      f-1     :     0.003301
      f+2     :     0.001775
      f-2     :     0.008165
      f+3     :     0.016462
      f-3     :     0.008461
  4 C s       :     2.760709  s :     2.760709
      pz      :     0.831827  p :     2.896738
      px      :     1.011735
      py      :     1.053176
      dz2     :     0.026944  d :     0.438131
      dxz     :     0.049415
      dyz     :     0.086225
      dx2y2   :     0.123604
      dxy     :     0.151944
      f0      :     0.005555  f :     0.048277
      f+1     :     0.003600
      f-1     :     0.004260
      f+2     :     0.006417
      f-2     :     0.003523
      f+3     :     0.016462
      f-3     :     0.008461
  5 C s       :     2.760721  s :     2.760721
      pz      :     0.831834  p :     2.896742
      px      :     1.013596
      py      :     1.051311
      dz2     :     0.026957  d :     0.438108
      dxz     :     0.051060
      dyz     :     0.084565
      dx2y2   :     0.120635
      dxy     :     0.154890
      f0      :     0.005554  f :     0.048275
      f+1     :     0.003631
      f-1     :     0.004230
      f+2     :     0.006719
      f-2     :     0.003221
      f+3     :     0.016460
      f-3     :     0.008460
  6 H s       :     0.794095  s :     0.794095
      pz      :     0.017071  p :     0.062039
      px      :     0.028619
      py      :     0.016349
  7 H s       :     0.794095  s :     0.794095
      pz      :     0.017070  p :     0.062037
      px      :     0.028069
      py      :     0.016898
  8 H s       :     0.794112  s :     0.794112
      pz      :     0.017071  p :     0.062039
      px      :     0.010764
      py      :     0.034204
  9 H s       :     0.794105  s :     0.794105
      pz      :     0.017070  p :     0.062037
      px      :     0.010764
      py      :     0.034203
 10 H s       :     0.794097  s :     0.794097
      pz      :     0.017074  p :     0.062042
      px      :     0.028620
      py      :     0.016348
 11 H s       :     0.794099  s :     0.794099
      pz      :     0.017074  p :     0.062046
      px      :     0.028070
      py      :     0.016903

SPIN
  0 C s       :     0.010379  s :     0.010379
      pz      :     0.517863  p :     0.521095
      px      :     0.003639
      py      :    -0.000407
      dz2     :    -0.002246  d :     0.122649
      dxz     :     0.039346
      dyz     :     0.083059
      dx2y2   :     0.001339
      dxy     :     0.001151
      f0      :     0.003017  f :     0.011498
      f+1     :    -0.000500
      f-1     :    -0.000538
      f+2     :     0.006278
      f-2     :     0.003162
      f+3     :     0.000091
      f-3     :    -0.000011
  1 C s       :     0.010377  s :     0.010377
      pz      :     0.517762  p :     0.521031
      px      :     0.003488
      py      :    -0.000219
      dz2     :    -0.002225  d :     0.122651
      dxz     :     0.041298
      dyz     :     0.081092
      dx2y2   :     0.001352
      dxy     :     0.001133
      f0      :     0.003015  f :     0.011498
      f+1     :    -0.000499
      f-1     :    -0.000536
      f+2     :     0.006602
      f-2     :     0.002835
      f+3     :     0.000090
      f-3     :    -0.000011
  2 C s       :     0.010379  s :     0.010379
      pz      :     0.517881  p :     0.521149
      px      :    -0.002198
      py      :     0.005466
      dz2     :    -0.002225  d :     0.122648
      dxz     :     0.102934
      dyz     :     0.019454
      dx2y2   :     0.001039
      dxy     :     0.001446
      f0      :     0.003015  f :     0.011497
      f+1     :    -0.000553
      f-1     :    -0.000482
      f+2     :     0.001277
      f-2     :     0.008160
      f+3     :     0.000090
      f-3     :    -0.000011
  3 C s       :     0.010376  s :     0.010376
      pz      :     0.517755  p :     0.521023
      px      :    -0.002195
      py      :     0.005463
      dz2     :    -0.002223  d :     0.122653
      dxz     :     0.102938
      dyz     :     0.019449
      dx2y2   :     0.001043
      dxy     :     0.001446
      f0      :     0.003014  f :     0.011497
      f+1     :    -0.000553
      f-1     :    -0.000482
      f+2     :     0.001277
      f-2     :     0.008161
      f+3     :     0.000090
      f-3     :    -0.000010
  4 C s       :     0.010378  s :     0.010378
      pz      :     0.517833  p :     0.521093
      px      :     0.003661
      py      :    -0.000400
      dz2     :    -0.002245  d :     0.122648
      dxz     :     0.039338
      dyz     :     0.083065
      dx2y2   :     0.001339
      dxy     :     0.001151
      f0      :     0.003016  f :     0.011498
      f+1     :    -0.000500
      f-1     :    -0.000537
      f+2     :     0.006278
      f-2     :     0.003160
      f+3     :     0.000091
      f-3     :    -0.000011
  5 C s       :     0.010380  s :     0.010380
      pz      :     0.517878  p :     0.521153
      px      :     0.003491
      py      :    -0.000216
      dz2     :    -0.002224  d :     0.122645
      dxz     :     0.041297
      dyz     :     0.081082
      dx2y2   :     0.001352
      dxy     :     0.001137
      f0      :     0.003015  f :     0.011498
      f+1     :    -0.000499
      f-1     :    -0.000536
      f+2     :     0.006602
      f-2     :     0.002835
      f+3     :     0.000090
      f-3     :    -0.000011
  6 H s       :    -0.014617  s :    -0.014617
      pz      :     0.013888  p :     0.015668
      px      :     0.001471
      py      :     0.000309
  7 H s       :    -0.014616  s :    -0.014616
      pz      :     0.013886  p :     0.015666
      px      :     0.001419
      py      :     0.000361
  8 H s       :    -0.014619  s :    -0.014619
      pz      :     0.013889  p :     0.015670
      px      :    -0.000218
      py      :     0.001999
  9 H s       :    -0.014617  s :    -0.014617
      pz      :     0.013886  p :     0.015667
      px      :    -0.000218
      py      :     0.001999
 10 H s       :    -0.014617  s :    -0.014617
      pz      :     0.013888  p :     0.015669
      px      :     0.001472
      py      :     0.000309
 11 H s       :    -0.014618  s :    -0.014618
      pz      :     0.013890  p :     0.015671
      px      :     0.001420
      py      :     0.000362


                      *****************************
                      * MAYER POPULATION ANALYSIS *
                      *****************************

  NA   - Mulliken gross atomic population
  ZA   - Total nuclear charge
  QA   - Mulliken gross atomic charge
  VA   - Mayer's total valence
  BVA  - Mayer's bonded valence
  FA   - Mayer's free valence

  ATOM       NA         ZA         QA         VA         BVA        FA
  0 C      6.1295     6.0000    -0.1295     3.8533     3.4212     0.4322
  1 C      6.1296     6.0000    -0.1296     3.8533     3.4213     0.4321
  2 C      6.1297     6.0000    -0.1297     3.8530     3.4208     0.4322
  3 C      6.1297     6.0000    -0.1297     3.8532     3.4212     0.4320
  4 C      6.1295     6.0000    -0.1295     3.8534     3.4213     0.4322
  5 C      6.1297     6.0000    -0.1297     3.8534     3.4212     0.4323
  6 H      0.8704     1.0000     0.1296     0.9677     0.9658     0.0019
  7 H      0.8704     1.0000     0.1296     0.9677     0.9658     0.0019
  8 H      0.8705     1.0000     0.1295     0.9679     0.9659     0.0019
  9 H      0.8705     1.0000     0.1295     0.9679     0.9659     0.0019
 10 H      0.8703     1.0000     0.1297     0.9677     0.9658     0.0019
 11 H      0.8703     1.0000     0.1297     0.9677     0.9658     0.0019

  Mayer bond orders larger than 0.100000
B(  0-C ,  1-C ) :   1.0890 B(  0-C ,  2-C ) :   1.0888 B(  0-C ,  4-C ) :   0.1063 
B(  0-C ,  6-H ) :   0.9710 B(  1-C ,  3-C ) :   1.0890 B(  1-C ,  5-C ) :   0.1063 
B(  1-C ,  7-H ) :   0.9709 B(  2-C ,  3-C ) :   0.1062 B(  2-C ,  5-C ) :   1.0889 
B(  2-C ,  8-H ) :   0.9709 B(  3-C ,  4-C ) :   1.0890 B(  3-C ,  9-H ) :   0.9709 
B(  4-C ,  5-C ) :   1.0891 B(  4-C , 10-H ) :   0.9709 B(  5-C , 11-H ) :   0.9709 


-------
TIMINGS
-------

Total SCF time: 0 days 0 hours 0 min 50 sec 

Total time                  ....      50.874 sec
Sum of individual times     ....      50.738 sec  ( 99.7%)

Fock matrix formation       ....      49.375 sec  ( 97.1%)
  Split-RI-J                ....       2.515 sec  (  5.1% of F)
  Chain of spheres X        ....      33.833 sec  ( 68.5% of F)
  XC integration            ....       9.281 sec  ( 18.8% of F)
    Basis function eval.    ....       1.402 sec  ( 15.1% of XC)
    Density eval.           ....       3.081 sec  ( 33.2% of XC)
    XC-Functional eval.     ....       0.268 sec  (  2.9% of XC)
    XC-Potential eval.      ....       4.435 sec  ( 47.8% of XC)
Diagonalization             ....       0.099 sec  (  0.2%)
Density matrix formation    ....       0.005 sec  (  0.0%)
Population analysis         ....       0.010 sec  (  0.0%)
Initial guess               ....       0.288 sec  (  0.6%)
Orbital Transformation      ....       0.000 sec  (  0.0%)
Orbital Orthonormalization  ....       0.000 sec  (  0.0%)
DIIS solution               ....       0.026 sec  (  0.1%)
Grid generation             ....       0.935 sec  (  1.8%)

Maximum memory used throughout the entire SCF-calculation: 126.6 MB
------------------------------------------------------------------------------
                        ORCA TD-DFT/TDA CALCULATION
------------------------------------------------------------------------------

Input orbitals are from        ... /home/ABTLUS/mario.neto/Desktop/orca-out/benzene/benzene.gbw
CI-vector output               ... /home/ABTLUS/mario.neto/Desktop/orca-out/benzene/benzene.cis
Tamm-Dancoff approximation     ... operative
CIS-Integral strategy          ... AO-integrals
Integral handling              ... AO integral Direct
Max. core memory used          ... 512 MB
Reference state                ... UHF
Follow IRoot                   ... off
Number of operators            ... 2
Orbital ranges used for CIS calculation:
 Operator 0:  Orbitals   6... 22  to  23...221
 Operator 1:  Orbitals   6... 18  to  19...221
XAS localization array:
 Operator 0:  Orbitals  -1... -1
 Operator 1:  Orbitals  -1... -1

-------------------
XC-INTEGRATION GRID
-------------------

General Integration Accuracy     IntAcc      ... 3.467
Radial Grid Type                 RadialGrid  ... OptM3 with GC (2021)
Angular Grid (max. ang.)         AngularGrid ... 1 (Lebedev-50)
Angular grid pruning method      GridPruning ... 4 (adaptive)
Weight generation scheme         WeightScheme... Becke
Basis function cutoff            BFCut       ... 1.0000e-10
Integration weight cutoff        WCut        ... 1.0000e-14
Angular grids for H and He will be reduced by one unit
Partially contracted basis set               ... off
Rotationally invariant grid construction     ... off

Total number of grid points                  ...     8108
Total number of batches                      ...      132
Average number of points per batch           ...       61
Average number of grid points per atom       ...      676

---------------------
COSX-INTEGRATION GRID
---------------------

General Integration Accuracy     IntAcc      ... 3.067
Radial Grid Type                 RadialGrid  ... OptM3 with GC (2021)
Angular Grid (max. ang.)         AngularGrid ... 1 (Lebedev-50)
Angular grid pruning method      GridPruning ... 4 (adaptive)
Weight generation scheme         WeightScheme... Becke
Basis function cutoff            BFCut       ... 1.0000e-10
Integration weight cutoff        WCut        ... 1.0000e-14
Angular grids for H and He will be reduced by one unit
Partially contracted basis set               ... on
Rotationally invariant grid construction     ... off

Total number of grid points                  ...     3720
Total number of batches                      ...       66
Average number of points per batch           ...       56
Average number of grid points per atom       ...      310

---------------
TD-DFT XC SETUP
---------------

DFT calculation                         ... on
Name of the grid file                   ... /home/ABTLUS/mario.neto/Desktop/orca-out/benzene/benzene.grid_cis.tmp
Exchange functional (TD-DFT)            ... B88
   X-Alpha parameter    XAlpha (TD-DFT) ...  0.666667
   Becke's b parameter  XBeta (TD-DFT)  ...  0.004200
Correlation functional (TD-DFT)         ... LYP
 LDA part of GGA corr.  LDAOpt (TD-DFT) ... VWN-5
Hybrid DFT                              ... on
   Exchange mixing (TD-DFT)             ...  0.200
   GGA exch. scaling (TD-DFT)           ...  0.720
   GGA corr. scaling (TD-DFT)           ...  0.810

Building densities             ... done
Calculating rho(r) on the grid ... done
Building xc-kernel on the grid ... done
[...]
    21a ->  26a  :     0.037287 (c=  0.19309924)
    22a ->  26a  :     0.255322 (c= -0.50529398)
    18b ->  19b  :     0.031247 (c=  0.17676738)
    18b ->  20b  :     0.669474 (c= -0.81821397)

STATE  3:  E=   0.110109 au      2.996 eV    24166.2 cm**-1 <S**2> =   6.012405
    21a ->  23a  :     0.014609 (c= -0.12086712)
    22a ->  23a  :     0.980239 (c= -0.99007000)

STATE  4:  E=   0.110131 au      2.997 eV    24170.9 cm**-1 <S**2> =   6.012405
    21a ->  23a  :     0.980226 (c= -0.99006362)
    22a ->  23a  :     0.014609 (c=  0.12086742)

STATE  5:  E=   0.114925 au      3.127 eV    25223.1 cm**-1 <S**2> =   6.016557
    16b ->  19b  :     0.280164 (c=  0.52930549)
    16b ->  20b  :     0.210304 (c= -0.45858928)
    17b ->  19b  :     0.210607 (c= -0.45891938)
    17b ->  20b  :     0.287992 (c= -0.53664882)

STATE  6:  E=   0.115659 au      3.147 eV    25384.1 cm**-1 <S**2> =   6.015948
    16b ->  19b  :     0.445414 (c=  0.66739355)
    16b ->  20b  :     0.053143 (c=  0.23052815)
    17b ->  19b  :     0.055586 (c= -0.23576616)
    17b ->  20b  :     0.439396 (c=  0.66286963)

STATE  7:  E=   0.115698 au      3.148 eV    25392.8 cm**-1 <S**2> =   6.015945
    16b ->  19b  :     0.056074 (c= -0.23679862)
    16b ->  20b  :     0.439536 (c=  0.66297495)
    17b ->  19b  :     0.445284 (c= -0.66729598)
    17b ->  20b  :     0.052665 (c= -0.22948955)

STATE  8:  E=   0.116632 au      3.174 eV    25597.8 cm**-1 <S**2> =   6.015367
    16b ->  19b  :     0.210614 (c=  0.45892735)
    16b ->  20b  :     0.289602 (c=  0.53814680)
    17b ->  19b  :     0.281128 (c=  0.53021508)
    17b ->  20b  :     0.212189 (c= -0.46064019)

STATE  9:  E=   0.142951 au      3.890 eV    31374.2 cm**-1 <S**2> =   6.012787
    21a ->  24a  :     0.489749 (c=  0.69982067)
    22a ->  25a  :     0.493186 (c=  0.70227198)

STATE 10:  E=   0.145709 au      3.965 eV    31979.5 cm**-1 <S**2> =   6.012740
    21a ->  24a  :     0.497991 (c=  0.70568469)
    22a ->  25a  :     0.494380 (c= -0.70312142)

STATE 11:  E=   0.145728 au      3.965 eV    31983.6 cm**-1 <S**2> =   6.012742
    21a ->  25a  :     0.484802 (c= -0.69627697)
    22a ->  24a  :     0.507582 (c= -0.71244793)

STATE 12:  E=   0.148578 au      4.043 eV    32609.1 cm**-1 <S**2> =   6.012260
    21a ->  25a  :     0.506913 (c= -0.71197819)
    22a ->  24a  :     0.484144 (c=  0.69580453)

STATE 13:  E=   0.170854 au      4.649 eV    37498.2 cm**-1 <S**2> =   6.013093
    21a ->  27a  :     0.024857 (c=  0.15766234)
    21a ->  28a  :     0.434273 (c= -0.65899398)
    22a ->  27a  :     0.506596 (c=  0.71175552)
    22a ->  28a  :     0.026020 (c=  0.16130829)

STATE 14:  E=   0.172312 au      4.689 eV    37818.1 cm**-1 <S**2> =   6.012422
    21a ->  27a  :     0.518847 (c= -0.72031064)
    22a ->  28a  :     0.456668 (c=  0.67577198)

STATE 15:  E=   0.172402 au      4.691 eV    37837.9 cm**-1 <S**2> =   6.012424
    21a ->  28a  :     0.523127 (c=  0.72327524)
    22a ->  27a  :     0.451900 (c=  0.67223527)

STATE 16:  E=   0.173428 au      4.719 eV    38063.0 cm**-1 <S**2> =   6.012218
    21a ->  27a  :     0.440081 (c= -0.66338583)
    21a ->  28a  :     0.024973 (c= -0.15802841)
    22a ->  27a  :     0.026037 (c=  0.16135939)
    22a ->  28a  :     0.502959 (c= -0.70919633)

STATE 17:  E=   0.187972 au      5.115 eV    41255.1 cm**-1 <S**2> =   6.012685
    21a ->  30a  :     0.982692 (c= -0.99130843)

STATE 18:  E=   0.188139 au      5.120 eV    41291.6 cm**-1 <S**2> =   6.012693
    22a ->  30a  :     0.983486 (c=  0.99170869)

STATE 19:  E=   0.189559 au      5.158 eV    41603.4 cm**-1 <S**2> =   6.016712
    14b ->  19b  :     0.493045 (c=  0.70217179)
    15b ->  20b  :     0.480334 (c=  0.69306119)

STATE 20:  E=   0.193934 au      5.277 eV    42563.5 cm**-1 <S**2> =   6.013020
    21a ->  26a  :     0.670635 (c= -0.81892289)
    18b ->  19b  :     0.254564 (c=  0.50454342)

STATE 21:  E=   0.194050 au      5.280 eV    42589.0 cm**-1 <S**2> =   6.013021
    22a ->  26a  :     0.673431 (c=  0.82062851)
    18b ->  20b  :     0.256560 (c= -0.50651748)

STATE 22:  E=   0.194446 au      5.291 eV    42675.9 cm**-1 <S**2> =   6.017475
    12b ->  19b  :     0.024233 (c= -0.15567026)
    14b ->  19b  :     0.418805 (c= -0.64715132)
    14b ->  20b  :     0.047111 (c=  0.21705096)
    15b ->  19b  :     0.047030 (c=  0.21686462)
    15b ->  20b  :     0.430662 (c=  0.65624880)

STATE 23:  E=   0.194460 au      5.292 eV    42679.0 cm**-1 <S**2> =   6.017489
    12b ->  20b  :     0.024430 (c=  0.15630257)
    14b ->  19b  :     0.048154 (c= -0.21944034)
    14b ->  20b  :     0.428047 (c= -0.65425310)
    15b ->  19b  :     0.426581 (c= -0.65313173)
    15b ->  20b  :     0.047880 (c=  0.21881404)

STATE 24:  E=   0.199029 au      5.416 eV    43681.9 cm**-1 <S**2> =   6.012360
    22a ->  29a  :     0.991913 (c= -0.99594832)

STATE 25:  E=   0.199034 au      5.416 eV    43683.0 cm**-1 <S**2> =   6.012359
    21a ->  29a  :     0.991960 (c=  0.99597194)

STATE 26:  E=   0.203260 au      5.531 eV    44610.4 cm**-1 <S**2> =   6.016329
    14b ->  20b  :     0.493872 (c=  0.70276016)
    15b ->  19b  :     0.495213 (c= -0.70371371)

STATE 27:  E=   0.214854 au      5.846 eV    47155.0 cm**-1 <S**2> =   6.015972
    13b ->  19b  :     0.095294 (c=  0.30869659)
    13b ->  20b  :     0.876481 (c=  0.93620542)

STATE 28:  E=   0.214867 au      5.847 eV    47157.9 cm**-1 <S**2> =   6.015969
    13b ->  19b  :     0.876392 (c=  0.93615802)
    13b ->  20b  :     0.095288 (c= -0.30868683)

STATE 29:  E=   0.230737 au      6.279 eV    50640.9 cm**-1 <S**2> =   6.016650
    12b ->  19b  :     0.058275 (c=  0.24140281)
    12b ->  20b  :     0.891552 (c=  0.94422024)
    14b ->  20b  :     0.012526 (c=  0.11191768)
    15b ->  19b  :     0.012521 (c=  0.11189774)

STATE 30:  E=   0.230754 au      6.279 eV    50644.6 cm**-1 <S**2> =   6.016651
    12b ->  19b  :     0.891650 (c= -0.94427239)
    12b ->  20b  :     0.058279 (c=  0.24140947)
    14b ->  19b  :     0.012513 (c=  0.11186162)
    15b ->  20b  :     0.012531 (c= -0.11194390)


-----------------------------
TD-DFT/TDA-EXCITATION SPECTRA
-----------------------------

Center of mass = (  2.2481,  1.3290, -0.0107)
Calculating the Dipole integrals                  ... done
Transforming integrals                            ... done
Calculating the Linear Momentum integrals         ... done
Transforming integrals                            ... done
Calculating angular momentum integrals            ... done
Transforming integrals                            ... done

-----------------------------------------------------------------------------
         ABSORPTION SPECTRUM VIA TRANSITION ELECTRIC DIPOLE MOMENTS
-----------------------------------------------------------------------------
State   Energy    Wavelength  fosc         T2        TX        TY        TZ  
        (cm-1)      (nm)                 (au**2)    (au)      (au)      (au) 
-----------------------------------------------------------------------------
   1   22168.1    451.1   0.015645748   0.23235  -0.18395  -0.44555  -0.00064
   2   22169.6    451.1   0.015605129   0.23173   0.44470  -0.18425  -0.00542
   3   24166.2    413.8   0.000001380   0.00002  -0.00433   0.00012  -0.00001
   4   24170.9    413.7   0.000001001   0.00001   0.00082  -0.00350  -0.00086
   5   25223.1    396.5   0.000000051   0.00000   0.00063  -0.00051  -0.00002
   6   25384.1    393.9   0.000000048   0.00000  -0.00053  -0.00059  -0.00000
   7   25392.8    393.8   0.000000029   0.00000  -0.00028   0.00054   0.00000
   8   25597.8    390.7   0.000000082   0.00000  -0.00064  -0.00081   0.00000
   9   31374.2    318.7   0.000000446   0.00000   0.00169  -0.00135  -0.00002
  10   31979.5    312.7   0.000000290   0.00000  -0.00153  -0.00081  -0.00002
  11   31983.6    312.7   0.000000478   0.00000   0.00163  -0.00151  -0.00003
  12   32609.1    306.7   0.000000006   0.00000   0.00016   0.00019   0.00004
  13   37498.2    266.7   0.010593303   0.09300  -0.00475   0.00360  -0.30491
  14   37818.1    264.4   0.000000226   0.00000  -0.00118   0.00064  -0.00040
  15   37837.9    264.3   0.000013214   0.00011  -0.00037  -0.00037   0.01071
  16   38063.0    262.7   0.000000085   0.00000   0.00066   0.00051   0.00022
  17   41255.1    242.4   0.000094777   0.00076   0.00113  -0.02741   0.00198
  18   41291.6    242.2   0.000100792   0.00080   0.02825   0.00241  -0.00007
  19   41603.4    240.4   0.003755551   0.02972  -0.00355   0.00832   0.17215
  20   42563.5    234.9   0.670849839   5.18876  -0.04886  -2.27733  -0.01205
  21   42589.0    234.8   0.674148282   5.21115   2.28196  -0.05749  -0.02262
  22   42675.9    234.3   0.008738777   0.06741   0.16480   0.20064   0.00038
  23   42679.0    234.3   0.003536186   0.02728   0.09571  -0.13458  -0.00183
  24   43681.9    228.9   0.000030226   0.00023  -0.01493   0.00221   0.00012
  25   43683.0    228.9   0.000016244   0.00012  -0.00232   0.01082   0.00008
  26   44610.4    224.2   0.000001752   0.00001  -0.00270  -0.00237   0.00001
  27   47155.0    212.1   0.000006124   0.00004  -0.00264  -0.00598   0.00020
  28   47157.9    212.1   0.000001759   0.00001   0.00016   0.00350  -0.00001
  29   50640.9    197.5   0.000001667   0.00001  -0.00164   0.00285   0.00003
  30   50644.6    197.5   0.000003855   0.00003  -0.00267  -0.00422  -0.00025

-----------------------------------------------------------------------------
         ABSORPTION SPECTRUM VIA TRANSITION VELOCITY DIPOLE MOMENTS
-----------------------------------------------------------------------------
State   Energy    Wavelength   fosc        P2         PX        PY        PZ  
        (cm-1)      (nm)                 (au**2)     (au)      (au)      (au) 
-----------------------------------------------------------------------------
   1   22168.1    451.1   0.003187498   0.00048  -0.00836  -0.02032  -0.00001
   2   22169.6    451.1   0.003172270   0.00048   0.02025  -0.00841  -0.00015
   3   24166.2    413.8   0.000000153   0.00000  -0.00015  -0.00004   0.00002
   4   24170.9    413.7   0.000000842   0.00000  -0.00002  -0.00020   0.00031
   5   25223.1    396.5   0.000000000   0.00000   0.00000  -0.00000   0.00001
   6   25384.1    393.9   0.000000001   0.00000  -0.00001  -0.00000   0.00000
   7   25392.8    393.8   0.000000003   0.00000  -0.00002   0.00001   0.00000
   8   25597.8    390.7   0.000000007   0.00000  -0.00002  -0.00003   0.00000
   9   31374.2    318.7   0.000000042   0.00000  -0.00007   0.00006  -0.00000
  10   31979.5    312.7   0.000000013   0.00000   0.00005  -0.00001   0.00001
  11   31983.6    312.7   0.000000044   0.00000  -0.00008   0.00005   0.00000
  12   32609.1    306.7   0.000000266   0.00000  -0.00015  -0.00019  -0.00001
  13   37498.2    266.7   0.049459961   0.01268   0.00123  -0.00076   0.11258
  14   37818.1    264.4   0.000000200   0.00000   0.00017  -0.00001   0.00015
  15   37837.9    264.3   0.000060913   0.00002  -0.00006  -0.00015  -0.00397
  16   38063.0    262.7   0.000000105   0.00000   0.00011   0.00010  -0.00008
  17   41255.1    242.4   0.000007592   0.00000  -0.00013   0.00116  -0.00088
  18   41291.6    242.2   0.000006495   0.00000  -0.00135  -0.00004  -0.00006
  19   41603.4    240.4   0.016508915   0.00469  -0.00047  -0.00001  -0.06851
  20   42563.5    234.9   0.042849827   0.01247   0.00241   0.11162   0.00021
  21   42589.0    234.8   0.042898047   0.01249  -0.11170   0.00285   0.00084
  22   42675.9    234.3   0.000566750   0.00017  -0.00815  -0.00994  -0.00034
  23   42679.0    234.3   0.000228597   0.00007  -0.00470   0.00667   0.00011
  24   43681.9    228.9   0.000001673   0.00000   0.00071   0.00000   0.00001
  25   43683.0    228.9   0.000001809   0.00000   0.00000  -0.00073  -0.00001
  26   44610.4    224.2   0.000000192   0.00000   0.00018   0.00016  -0.00000
  27   47155.0    212.1   0.000000585   0.00000   0.00018   0.00040  -0.00004
  28   47157.9    212.1   0.000000181   0.00000   0.00001  -0.00024   0.00001
  29   50640.9    197.5   0.000000186   0.00000   0.00011  -0.00023  -0.00000
  30   50644.6    197.5   0.000000578   0.00000   0.00021   0.00038   0.00012

-------------------------------------------------------------------
                             CD SPECTRUM
-------------------------------------------------------------------
State  Energy     Wavelength     R         MX        MY        MZ   
       (cm-1)       (nm)     (1e40*cgs)   (au)      (au)      (au)  
-------------------------------------------------------------------
   1   22168.1    451.1      0.00643   0.00019  -0.00011  -0.00001
   2   22169.6    451.1     -0.00658  -0.00014  -0.00026  -0.00001
   3   24166.2    413.8      0.00001  -0.00000   0.00001  -0.00033
   4   24170.9    413.7      0.00014  -0.00000   0.00000  -0.00036
   5   25223.1    396.5      0.00002  -0.00001  -0.00010  -0.00001
   6   25384.1    393.9      0.01476  -0.05708  -0.00149   0.00163
   7   25392.8    393.8     -0.01474   0.00147  -0.05685  -0.00165
   8   25597.8    390.7      0.00010  -0.00004  -0.00022  -0.00011
   9   31374.2    318.7      0.00002  -0.00001  -0.00005   0.00000
  10   31979.5    312.7      0.09536  -0.13074  -0.00347   0.00114
  11   31983.6    312.7     -0.09512  -0.00351   0.13015   0.00061
  12   32609.1    306.7      0.00014   0.00010   0.00148  -0.00025
  13   37498.2    266.7     -0.00279   0.00003  -0.00002   0.00002
  14   37818.1    264.4      0.00005   0.00001  -0.00001  -0.00031
  15   37837.9    264.3      0.00257   0.00002  -0.00001   0.00051
  16   38063.0    262.7      0.00004  -0.00001  -0.00002   0.00045
  17   41255.1    242.4      0.00033  -0.00001  -0.00002   0.00005
  18   41291.6    242.2      0.00033   0.00002  -0.00000   0.00001
  19   41603.4    240.4      0.00009   0.00001   0.00001   0.00000
  20   42563.5    234.9     -0.04600   0.00042   0.00003  -0.00000
  21   42589.0    234.8      0.05012   0.00006   0.00047   0.00012
  22   42675.9    234.3     -0.00370  -0.00005   0.00000  -0.00034
  23   42679.0    234.3     -0.00204   0.00005   0.00006   0.00031
  24   43681.9    228.9      0.08655  -0.00020   0.08171   0.00066
  25   43683.0    228.9     -0.08875   0.08219   0.00025  -0.00099
  26   44610.4    224.2     -0.00000   0.00000   0.00000   0.00016
  27   47155.0    212.1     -0.00006   0.00001   0.00004   0.00059
  28   47157.9    212.1     -0.00000  -0.00003  -0.00000  -0.00060
  29   50640.9    197.5     -0.00002  -0.00001  -0.00002  -0.00023
  30   50644.6    197.5     -0.00004  -0.00002   0.00002   0.00023

-------------------------------------------------------------------
         CD SPECTRUM VIA TRANSITION VELOCITY DIPOLE MOMENTS        
-------------------------------------------------------------------
State  Energy     Wavelength     R         MX        MY        MZ   
       (cm-1)       (nm)     (1e40*cgs)   (au)      (au)      (au)  
-------------------------------------------------------------------
   1   22168.1    451.1      0.00293   0.00019  -0.00011  -0.00001
   2   22169.6    451.1     -0.00294  -0.00014  -0.00026  -0.00001
   3   24166.2    413.8     -0.00002  -0.00000   0.00001  -0.00033
   4   24170.9    413.7     -0.00048  -0.00000   0.00000  -0.00036
   5   25223.1    396.5      0.00000  -0.00001  -0.00010  -0.00001
   6   25384.1    393.9      0.00324  -0.05708  -0.00149   0.00163
   7   25392.8    393.8     -0.00331   0.00147  -0.05685  -0.00165
   8   25597.8    390.7      0.00003  -0.00004  -0.00022  -0.00011
   9   31374.2    318.7     -0.00001  -0.00001  -0.00005   0.00000
  10   31979.5    312.7     -0.02163  -0.13074  -0.00347   0.00114
  11   31983.6    312.7      0.02221  -0.00351   0.13015   0.00061
  12   32609.1    306.7     -0.00095   0.00010   0.00148  -0.00025
  13   37498.2    266.7      0.00597   0.00003  -0.00002   0.00002
  14   37818.1    264.4     -0.00013   0.00001  -0.00001  -0.00031
  15   37837.9    264.3     -0.00553   0.00002  -0.00001   0.00051
  16   38063.0    262.7     -0.00010  -0.00001  -0.00002   0.00045
  17   41255.1    242.4     -0.00017  -0.00001  -0.00002   0.00005
  18   41291.6    242.2     -0.00009   0.00002  -0.00000   0.00001
  19   41603.4    240.4     -0.00014   0.00001   0.00001   0.00000
  20   42563.5    234.9      0.01165   0.00042   0.00003  -0.00000
  21   42589.0    234.8     -0.01268   0.00006   0.00047   0.00012
  22   42675.9    234.3      0.00120  -0.00005   0.00000  -0.00034
  23   42679.0    234.3      0.00054   0.00005   0.00006   0.00031
  24   43681.9    228.9      0.00038  -0.00020   0.08171   0.00066
  25   43683.0    228.9      0.00010   0.08219   0.00025  -0.00099
  26   44610.4    224.2     -0.00000   0.00000   0.00000   0.00016
  27   47155.0    212.1     -0.00001   0.00001   0.00004   0.00059
  28   47157.9    212.1     -0.00001  -0.00003  -0.00000  -0.00060
  29   50640.9    197.5      0.00001  -0.00001  -0.00002  -0.00023
  30   50644.6    197.5      0.00006  -0.00002   0.00002   0.00023

Total run time:       96.626 sec

           *** ORCA-CIS/TD-DFT FINISHED WITHOUT ERROR ***

Maximum memory used throughout the entire CIS-calculation: 343.5 MB

-----------------------
CIS/TD-DFT TOTAL ENERGY
-----------------------

    E(SCF)  =   -231.867400687 Eh
    DE(CIS) =      0.101005291 Eh (Root  1)
    ----------------------------- ---------
    E(tot)  =   -231.766395396 Eh


-------------------------   --------------------
FINAL SINGLE POINT ENERGY      -231.766395395754
-------------------------   --------------------


                            ***************************************
                            *     ORCA property calculations      *
                            ***************************************

                                    ---------------------
                                    Active property flags
                                    ---------------------
   (+) Dipole Moment


------------------------------------------------------------------------------
                       ORCA ELECTRIC PROPERTIES CALCULATION
------------------------------------------------------------------------------

Dipole Moment Calculation                       ... on
Quadrupole Moment Calculation                   ... off
Polarizability Calculation                      ... off
GBWName                                         ... /home/ABTLUS/mario.neto/Desktop/orca-out/benzene/benzene.gbw
Electron density                                ... /home/ABTLUS/mario.neto/Desktop/orca-out/benzene/benzene.scfp
The origin for moment calculation is the CENTER OF MASS  = ( 2.248144,  1.329049 -0.010736)

-------------
DIPOLE MOMENT
-------------
                                X             Y             Z
Electronic contribution:     -0.00000      -0.00017       0.00206
Nuclear contribution   :     -0.00000       0.00017      -0.00320
                        -----------------------------------------
Total Dipole Moment    :     -0.00000       0.00000      -0.00114
                        -----------------------------------------
Magnitude (a.u.)       :      0.00114
Magnitude (Debye)      :      0.00290



--------------------
Rotational spectrum 
--------------------
 
Rotational constants in cm-1:     0.193347     0.193343     0.096673 
Rotational constants in MHz :  5796.387657  5796.286947  2898.169404 

 Dipole components along the rotational axes: 
x,y,z [a.u.] :    -0.000003     0.000007    -0.001140 
x,y,z [Debye]:    -0.000007     0.000017    -0.002897 

 

Timings for individual modules:

Sum of individual times         ...      147.700 sec (=   2.462 min)
GTO integral calculation        ...        0.165 sec (=   0.003 min)   0.1 %
SCF iterations                  ...       50.891 sec (=   0.848 min)  34.5 %
CIS module                      ...       96.645 sec (=   1.611 min)  65.4 %
                             ****ORCA TERMINATED NORMALLY****
TOTAL RUN TIME: 0 days 0 hours 2 minutes 27 seconds 807 msec
